<?xml version="1.0" encoding="UTF-8"?>

<!-- generated on 2023-06-21 15:11:29 by Eclipse SUMO GUI Version 1.16.0
<configuration xmlns:xsi="http://www.w3.org/2001/XMLSchema-instance" xsi:noNamespaceSchemaLocation="http://sumo.dlr.de/xsd/sumoConfiguration.xsd">

    <input>
        <net-file value="trac.net.xml"/>
        <route-files value="trac.rou.xml"/>
        <additional-files value="trac.add.xml"/>
    </input>

    <output>
        <tripinfo-output value="tripinfo.xml"/>
    </output>

    <time>
        <begin value="0"/>
        <end value="500"/>
        <step-length value="0.05"/>
    </time>

    <processing>
        <lateral-resolution value="0.3"/>
    </processing>

    <traci_server>
        <remote-port value="52681"/>
    </traci_server>

</configuration>
-->

<tripinfos xmlns:xsi="http://www.w3.org/2001/XMLSchema-instance" xsi:noNamespaceSchemaLocation="http://sumo.dlr.de/xsd/tripinfo_file.xsd">
</tripinfos>
